 Gaussian 09, Revision A.01,
 Gaussian 09:  EM64L-G09RevA.01  8-May-2009

 -------------------------------------------------------------
 #b3lyp/6-31+g* scf=tight nosymm punch=mo iop(3/33=1) pop=full
 -------------------------------------------------------------

 -------
 9_11_07
 -------
 Symbolic Z-matrix:
 Charge =  0 Multiplicity = 1

                          Input orientation:
 ---------------------------------------------------------------------
 Center     Atomic      Atomic             Coordinates (Angstroms)
 Number     Number       Type             X           Y           Z
 ---------------------------------------------------------------------
      1          1           0        1.242623   -0.809566    4.532597
      2          6           0       -0.672749    0.000000    5.000000
      3          1           0       -1.242623    0.809566    5.467403
      4          6           0        0.672749    0.000000    5.000000
      5          1           0       -1.242623   -0.809566    4.532597
      6          1           0        1.242623    0.809566    5.467403
 ---------------------------------------------------------------------

 SCF Done:  E(RB3LYP) =  -78.5929861748     A.U. after    8 cycles

 Alpha  occ. eigenvalues --  -10.19871 -10.19790  -0.76206  -0.58448  -0.47268
 Alpha  occ. eigenvalues --   -0.42268  -0.36322  -0.27596
 Alpha virt. eigenvalues --   -0.00988   0.02502   0.03257   0.04671   0.06955
 Alpha virt. eigenvalues --    0.08672   0.08746   0.12752   0.15668   0.17641
 Alpha virt. eigenvalues --    0.19040   0.24303   0.34233   0.34755   0.57994

 Mulliken atomic charges:
              1
     1  H    0.183044
     2  C   -0.366088
     3  H    0.183044
     4  C   -0.366088
     5  H    0.183044
     6  H    0.183044
 Sum of Mulliken atomic charges =   0.00000

 Dipole moment (field-independent basis, Debye):
    X=              0.0000    Y=              0.0000    Z=              0.0000  Tot=              0.0000
 Quadrupole moment (field-independent basis, Debye-Ang):
   XX=            -12.4310   YY=            -13.3391   ZZ=            -15.2042
   XY=              0.0000   XZ=              0.0000   YZ=              1.6149

 Normal termination of Gaussian 09 at Thu Mar 22 16:26:05 2018.
