 Gaussian 03, Revision B.05,
 Gaussian 03:  x86_64-Linux-G03RevB.05  8-Nov-2003

 ----------------------------------------------------
 #b3lyp/6-31+g* scf=tight nosymm punch=mo iop(3/33=1)
 ----------------------------------------------------

 -------
 9_11_07
 -------
 Symbolic Z-matrix:
 Charge =  0 Multiplicity = 1

                          Input orientation:
 ---------------------------------------------------------------------
 Center     Atomic     Atomic              Coordinates (Angstroms)
 Number     Number      Type              X           Y           Z
 ---------------------------------------------------------------------
    1          6             0        0.672749    0.000000    5.000000
    2          6             0       -0.672749    0.000000    5.000000
    3          1             0        1.242623    0.934806    5.000000
    4          1             0        1.242623   -0.934806    5.000000
    5          1             0       -1.242623    0.934806    5.000000
    6          1             0       -1.242623   -0.934806    5.000000
 ---------------------------------------------------------------------

 SCF Done:  E(RB+HF-LYP) =  -78.5929858125     A.U. after    8 cycles

 Alpha  occ. eigenvalues --  -10.19871 -10.19790  -0.76206  -0.58448  -0.47268
 Alpha  occ. eigenvalues --   -0.42268  -0.36322  -0.27596
 Alpha virt. eigenvalues --   -0.00987   0.02501   0.03257   0.04671   0.06950
 Alpha virt. eigenvalues --    0.08669   0.08746   0.12755   0.15672   0.17641
 Alpha virt. eigenvalues --    0.19039   0.24307   0.34233   0.34755   0.57993

 Mulliken atomic charges:
              1
     1  C   -0.366090
     2  C   -0.366090
     3  H    0.183045
     4  H    0.183045
     5  H    0.183045
     6  H    0.183045
 Sum of Mulliken charges=   0.00000

 Dipole moment (field-independent basis, Debye):
    X=     0.0000    Y=     0.0000    Z=     0.0000  Tot=     0.0000
 Quadrupole moment (field-independent basis, Debye-Ang):
   XX=   -12.4310   YY=   -12.4069   ZZ=   -16.1367
   XY=     0.0000   XZ=     0.0000   YZ=     0.0000

 Normal termination of Gaussian 03 at Fri Nov  9 15:50:03 2007.
