 Gaussian 03, Revision B.05,
 Gaussian 03:  x86_64-Linux-G03RevB.05  8-Nov-2003

 ----------------------------------------------------
 #b3lyp/6-31+g* scf=tight nosymm punch=mo iop(3/33=1)
 ----------------------------------------------------

 -------
 9_11_07
 -------
 Symbolic Z-matrix:
 Charge =  0 Multiplicity = 1

                          Input orientation:
 ---------------------------------------------------------------------
 Center     Atomic     Atomic              Coordinates (Angstroms)
 Number     Number      Type              X           Y           Z
 ---------------------------------------------------------------------
    1          6             0        0.672749    0.000000    0.000000
    2          6             0       -0.672749    0.000000    0.000000
    3          1             0        1.242623    0.934806    0.000000
    4          1             0        1.242623   -0.934806    0.000000
    5          1             0       -1.242623    0.934806    0.000000
    6          1             0       -1.242623   -0.934806    0.000000
    7          6             0        0.672749    0.000000    5.000000
    8          6             0       -0.672749    0.000000    5.000000
    9          1             0        1.242623    0.934806    5.000000
   10          1             0        1.242623   -0.934806    5.000000
   11          1             0       -1.242623    0.934806    5.000000
   12          1             0       -1.242623   -0.934806    5.000000
 ---------------------------------------------------------------------

 SCF Done:  E(RB+HF-LYP) =  -157.185579301     A.U. after    8 cycles

 Alpha  occ. eigenvalues --  -10.19631 -10.19631 -10.19551 -10.19551  -0.75974
 Alpha  occ. eigenvalues --   -0.75960  -0.58233  -0.58218  -0.47053  -0.47036
 Alpha  occ. eigenvalues --   -0.42050  -0.42036  -0.36114  -0.36098  -0.27541
 Alpha  occ. eigenvalues --   -0.27127
 Alpha virt. eigenvalues --   -0.01260  -0.00227   0.01734   0.02598   0.03658
 Alpha virt. eigenvalues --    0.04027   0.04585   0.05921   0.07569   0.08076
 Alpha virt. eigenvalues --    0.08209   0.09617   0.09972   0.11529   0.13223

 Mulliken atomic charges:
              1
     1  C   -0.363230
     2  C   -0.363230
     3  H    0.181615
     4  H    0.181615
     5  H    0.181615
     6  H    0.181615
     7  C   -0.363230
     8  C   -0.363230
     9  H    0.181615
    10  H    0.181615
    11  H    0.181615
    12  H    0.181615
 Sum of Mulliken charges=   0.00000

 Dipole moment (field-independent basis, Debye):
    X=     0.0000    Y=     0.0000    Z=     0.0000  Tot=     0.0000
 Quadrupole moment (field-independent basis, Debye-Ang):
   XX=   -24.9185   YY=   -24.8490   ZZ=   -32.7472
   XY=     0.0000   XZ=     0.0000   YZ=     0.0000

 Normal termination of Gaussian 03 at Fri Nov  9 15:50:20 2007.
