 Gaussian 03, Revision B.05,
 Gaussian 03:  x86_64-Linux-G03RevB.05  8-Nov-2003

 ----------------------------------------------------
 #b3lyp/6-31+g* scf=tight nosymm punch=mo iop(3/33=1)
 ----------------------------------------------------

 -------
 9_11_07
 -------
 Symbolic Z-matrix:
 Charge =  0 Multiplicity = 1

                          Input orientation:
 ---------------------------------------------------------------------
 Center     Atomic     Atomic              Coordinates (Angstroms)
 Number     Number      Type              X           Y           Z
 ---------------------------------------------------------------------
    1          6             0        0.672749    0.000000    0.000000
    2          6             0       -0.672749    0.000000    0.000000
    3          1             0        1.242623    0.934806    0.000000
    4          1             0        1.242623   -0.934806    0.000000
    5          1             0       -1.242623    0.934806    0.000000
    6          1             0       -1.242623   -0.934806    0.000000
    7          6             0        0.672749    0.000000    5.000000
    8          6             0       -0.672749    0.000000    5.000000
    9          1             0        1.242623    0.600882    5.716103
   10          1             0        1.242623   -0.600882    4.283897
   11          1             0       -1.242623    0.600882    5.716103
   12          1             0       -1.242623   -0.600882    4.283897
 ---------------------------------------------------------------------

 SCF Done:  E(RB+HF-LYP) =  -157.185825304     A.U. after    9 cycles

 Alpha  occ. eigenvalues --  -10.19847 -10.19767 -10.19604 -10.19524  -0.76189
 Alpha  occ. eigenvalues --   -0.75939  -0.58434  -0.58194  -0.47251  -0.47000
 Alpha  occ. eigenvalues --   -0.42254  -0.42014  -0.36307  -0.36062  -0.27638
 Alpha  occ. eigenvalues --   -0.27265
 Alpha virt. eigenvalues --   -0.01263  -0.00497   0.01481   0.02437   0.03371
 Alpha virt. eigenvalues --    0.04227   0.04434   0.06053   0.07561   0.07919
 Alpha virt. eigenvalues --    0.08373   0.09466   0.10177   0.12098   0.13206

 Mulliken atomic charges:
              1
     1  C   -0.367790
     2  C   -0.367790
     3  H    0.184025
     4  H    0.181985
     5  H    0.184025
     6  H    0.181985
     7  C   -0.362863
     8  C   -0.362863
     9  H    0.181795
    10  H    0.182847
    11  H    0.181795
    12  H    0.182847
 Sum of Mulliken charges=   0.00000

 Dipole moment (field-independent basis, Debye):
    X=     0.0000    Y=     0.0178    Z=    -0.0223  Tot=     0.0286
 Quadrupole moment (field-independent basis, Debye-Ang):
   XX=   -24.8940   YY=   -27.0136   ZZ=   -30.4946
   XY=     0.0000   XZ=     0.0000   YZ=     1.8242

 Normal termination of Gaussian 03 at Fri Nov  9 15:52:24 2007.
