 Gaussian 09, Revision A.01,
 Gaussian 09:  EM64L-G09RevA.01  8-May-2009

 ----------------------------------------------------------------------
 # b3lyp/6-31+g(d) nosymm geom=connectivity iop(3/33=1) punch=mo scf=ti
 ght
 ----------------------------------------------------------------------

 -------
 9_11_07
 -------
 Symbolic Z-matrix:
 Charge =  0 Multiplicity = 1

                          Input orientation:
 ---------------------------------------------------------------------
 Center     Atomic      Atomic             Coordinates (Angstroms)
 Number     Number       Type             X           Y           Z
 ---------------------------------------------------------------------
      1          6           0        0.672749    0.000000    0.000000
      2          6           0       -0.672749    0.000000    0.000000
      3          1           0        1.242623    0.934806    0.000000
      4          1           0        1.242623   -0.934806    0.000000
      5          1           0       -1.242623    0.934806    0.000000
      6          1           0       -1.242623   -0.934806    0.000000
      7          6        1000        0.672749    0.000000    1.000000
      8          6        1000       -0.672749    0.000000    1.000000
      9          1        1000        1.242623    0.934806    1.000000
     10          1        1000        1.242623   -0.934806    1.000000
     11          1        1000       -1.242623    0.934806    1.000000
     12          1        1000       -1.242623   -0.934806    1.000000
 ---------------------------------------------------------------------

 SCF Done:  E(RB3LYP) =  -78.5956697874     A.U. after    9 cycles

 Alpha  occ. eigenvalues --  -10.19551 -10.19471  -0.76226  -0.58426  -0.47249
 Alpha  occ. eigenvalues --   -0.42279  -0.36285  -0.27735
 Alpha virt. eigenvalues --   -0.01185   0.01925   0.03031   0.04539   0.04849
 Alpha virt. eigenvalues --    0.08288   0.08571   0.08805   0.08816   0.08856
 Alpha virt. eigenvalues --    0.13567   0.14051   0.14409   0.14895   0.16884

 Mulliken atomic charges:
              1
     1  C   -0.765273
     2  C   -0.765273
     3  H    0.217724
     4  H    0.217724
     5  H    0.217724
     6  H    0.217724
     7  C    0.376341
     8  C    0.376341
     9  H   -0.023258
    10  H   -0.023258
    11  H   -0.023258
    12  H   -0.023258
 Sum of Mulliken atomic charges =   0.00000

 Dipole moment (field-independent basis, Debye):
    X=              0.0000    Y=              0.0000    Z=              0.0113  Tot=              0.0113
 Quadrupole moment (field-independent basis, Debye-Ang):
   XX=            -12.4429   YY=            -12.5173   ZZ=            -15.9740
   XY=              0.0000   XZ=              0.0000   YZ=              0.0000

 Normal termination of Gaussian 09 at Mon Apr 16 09:43:19 2018.
