 Gaussian 09, Revision A.01,
 Gaussian 09:  EM64L-G09RevA.01  8-May-2009

 ----------------------------------------------------------------------
 # b3lyp/6-31+g(d) nosymm geom=connectivity iop(3/33=1) punch=mo scf=ti
 ght
 ----------------------------------------------------------------------

 -------
 9_11_07
 -------
 Symbolic Z-matrix:
 Charge =  0 Multiplicity = 1

                          Input orientation:
 ---------------------------------------------------------------------
 Center     Atomic      Atomic             Coordinates (Angstroms)
 Number     Number       Type             X           Y           Z
 ---------------------------------------------------------------------
      1          6           0        0.672749    0.000000    0.000000
      2          6           0       -0.672749    0.000000    0.000000
      3          1           0        1.242623    0.934806    0.000000
      4          1           0        1.242623   -0.934806    0.000000
      5          1           0       -1.242623    0.934806    0.000000
      6          1           0       -1.242623   -0.934806    0.000000
      7          6           0        0.672749    0.000000    1.000000
      8          6           0       -0.672749    0.000000    1.000000
      9          1           0        1.242623    0.934806    1.000000
     10          1           0        1.242623   -0.934806    1.000000
     11          1           0       -1.242623    0.934806    1.000000
     12          1           0       -1.242623   -0.934806    1.000000
 ---------------------------------------------------------------------

 SCF Done:  E(RB3LYP) =  -155.559058185     A.U. after   11 cycles

 Alpha  occ. eigenvalues --  -10.17979 -10.17895 -10.16589 -10.16515  -1.16095
 Alpha  occ. eigenvalues --   -0.93850  -0.75097  -0.71390  -0.63829  -0.58760
 Alpha  occ. eigenvalues --   -0.44386  -0.39306  -0.34923  -0.26722  -0.21515
 Alpha  occ. eigenvalues --   -0.15780
 Alpha virt. eigenvalues --   -0.06347  -0.03597   0.02072   0.02798   0.03169
 Alpha virt. eigenvalues --    0.04769   0.06036   0.06334   0.06795   0.07377
 Alpha virt. eigenvalues --    0.09457   0.11342   0.13498   0.13524   0.16697

 Mulliken atomic charges:
              1
     1  C   -0.291818
     2  C   -0.291818
     3  H    0.145909
     4  H    0.145909
     5  H    0.145909
     6  H    0.145909
     7  C   -0.291818
     8  C   -0.291818
     9  H    0.145909
    10  H    0.145909
    11  H    0.145909
    12  H    0.145909
 Sum of Mulliken atomic charges =   0.00000

 Dipole moment (field-independent basis, Debye):
    X=              0.0000    Y=              0.0000    Z=              0.0000  Tot=              0.0000
 Quadrupole moment (field-independent basis, Debye-Ang):
   XX=            -26.5228   YY=            -24.3609   ZZ=            -35.2410
   XY=              0.0000   XZ=              0.0000   YZ=              0.0000

 Normal termination of Gaussian 09 at Mon Apr 16 09:32:21 2018.
