 Gaussian 03, Revision B.05,
 Gaussian 03:  x86_64-Linux-G03RevB.05  8-Nov-2003

 ----------------------------------------------------
 #b3lyp/6-31+g* scf=tight nosymm punch=mo iop(3/33=1)
 ----------------------------------------------------

 -------
 9_11_07
 -------
 Symbolic Z-matrix:
 Charge =  0 Multiplicity = 1

                          Input orientation:
 ---------------------------------------------------------------------
 Center     Atomic     Atomic              Coordinates (Angstroms)
 Number     Number      Type              X           Y           Z
 ---------------------------------------------------------------------
    1          6             0        0.672749    0.000000    0.000000
    2          6             0       -0.672749    0.000000    0.000000
    3          1             0        1.242623    0.934806    0.000000
    4          1             0        1.242623   -0.934806    0.000000
    5          1             0       -1.242623    0.934806    0.000000
    6          1             0       -1.242623   -0.934806    0.000000
    7          6             0        0.672749    0.000000    5.000000
    8          6             0       -0.672749    0.000000    5.000000
    9          1             0        1.242623    0.920604    5.162327
   10          1             0        1.242623   -0.920604    4.837673
   11          1             0       -1.242623    0.920604    5.162327
   12          1             0       -1.242623   -0.920604    4.837673
 ---------------------------------------------------------------------

 SCF Done:  E(RB+HF-LYP) =  -157.185602007     A.U. after    9 cycles

 Alpha  occ. eigenvalues --  -10.19642 -10.19631 -10.19562 -10.19550  -0.75982
 Alpha  occ. eigenvalues --   -0.75963  -0.58240  -0.58220  -0.47060  -0.47039
 Alpha  occ. eigenvalues --   -0.42057  -0.42039  -0.36120  -0.36100  -0.27544
 Alpha  occ. eigenvalues --   -0.27136
 Alpha virt. eigenvalues --   -0.01263  -0.00240   0.01721   0.02589   0.03633
 Alpha virt. eigenvalues --    0.04045   0.04577   0.05929   0.07563   0.08090
 Alpha virt. eigenvalues --    0.08193   0.09611   0.09982   0.11581   0.13218

 Mulliken atomic charges:
              1
     1  C   -0.363508
     2  C   -0.363508
     3  H    0.182023
     4  H    0.181374
     5  H    0.182023
     6  H    0.181374
     7  C   -0.363082
     8  C   -0.363082
     9  H    0.181526
    10  H    0.181666
    11  H    0.181526
    12  H    0.181666
 Sum of Mulliken charges=   0.00000

 Dipole moment (field-independent basis, Debye):
    X=     0.0000    Y=     0.0051    Z=    -0.0011  Tot=     0.0052
 Quadrupole moment (field-independent basis, Debye-Ang):
   XX=   -24.9173   YY=   -24.9603   ZZ=   -32.6308
   XY=     0.0000   XZ=     0.0000   YZ=     0.6296

 Normal termination of Gaussian 03 at Fri Nov  9 15:50:44 2007.
