 Gaussian 09, Revision A.01,
 Gaussian 09:  EM64L-G09RevA.01  8-May-2009

 -------------------------------------------------------------
 #b3lyp/6-31+g* scf=tight nosymm punch=mo iop(3/33=1) pop=full
 -------------------------------------------------------------

 -------
 9_11_07
 -------
 Symbolic Z-matrix:
 Charge =  0 Multiplicity = 1

                          Input orientation:
 ---------------------------------------------------------------------
 Center     Atomic      Atomic             Coordinates (Angstroms)
 Number     Number       Type             X           Y           Z
 ---------------------------------------------------------------------
      1          1           0       -1.242623   -0.716103    4.399118
      2          6           0        0.672749    0.000000    0.000000
      3          1           0        1.242623    0.934806    0.000000
      4          1           0        1.242623   -0.716103    4.399118
      5          1           0       -1.242623    0.934806    0.000000
      6          6           0        0.672749    0.000000    5.000000
      7          6           0       -0.672749    0.000000    0.000000
      8          1           0       -1.242623   -0.934806    0.000000
      9          6           0       -0.672749    0.000000    5.000000
     10          1           0        1.242623   -0.934806    0.000000
     11          1           0        1.242623    0.716103    5.600882
     12          1           0       -1.242623    0.716103    5.600882
 ---------------------------------------------------------------------

 SCF Done:  E(RB3LYP) =  -157.185742123     A.U. after    9 cycles

 Alpha  occ. eigenvalues --  -10.19781 -10.19700 -10.19614 -10.19533  -0.76120
 Alpha  occ. eigenvalues --   -0.75948  -0.58370  -0.58204  -0.47188  -0.47014
 Alpha  occ. eigenvalues --   -0.42189  -0.42023  -0.36245  -0.36076  -0.27599
 Alpha  occ. eigenvalues --   -0.27230
 Alpha virt. eigenvalues --   -0.01264  -0.00409   0.01562   0.02487   0.03433
 Alpha virt. eigenvalues --    0.04180   0.04477   0.06026   0.07550   0.08001
 Alpha virt. eigenvalues --    0.08278   0.09523   0.10114   0.12047   0.13200

 Mulliken atomic charges:
              1
     1  H    0.182183
     2  C   -0.366499
     3  H    0.183574
     4  H    0.182183
     5  H    0.183574
     6  C   -0.362390
     7  C   -0.366499
     8  H    0.181590
     9  C   -0.362390
    10  H    0.181590
    11  H    0.181542
    12  H    0.181542
 Sum of Mulliken atomic charges =   0.00000

 Dipole moment (field-independent basis, Debye):
    X=              0.0000    Y=              0.0171    Z=             -0.0140  Tot=              0.0221
 Quadrupole moment (field-independent basis, Debye-Ang):
   XX=            -24.9012   YY=            -26.3724   ZZ=            -31.1508
   XY=              0.0000   XZ=              0.0000   YZ=              1.8218

 Normal termination of Gaussian 09 at Thu Mar 22 16:20:54 2018.
