 Gaussian 03, Revision B.05,
 Gaussian 03:  x86_64-Linux-G03RevB.05  8-Nov-2003

 ----------------------------------------------------
 #b3lyp/6-31+g* scf=tight nosymm punch=mo iop(3/33=1)
 ----------------------------------------------------

 -------
 9_11_07
 -------
 Symbolic Z-matrix:
 Charge =  0 Multiplicity = 1

                          Input orientation:
 ---------------------------------------------------------------------
 Center     Atomic     Atomic              Coordinates (Angstroms)
 Number     Number      Type              X           Y           Z
 ---------------------------------------------------------------------
    1          6             0        0.672749    0.000000    0.000000
    2          6             0       -0.672749    0.000000    0.000000
    3          1             0        1.242623    0.934806    0.000000
    4          1             0        1.242623   -0.934806    0.000000
    5          1             0       -1.242623    0.934806    0.000000
    6          1             0       -1.242623   -0.934806    0.000000
    7          6             0        0.672749    0.000000    5.000000
    8          6             0       -0.672749    0.000000    5.000000
    9          1             0        1.242623    0.467403    5.809566
   10          1             0        1.242623   -0.467403    4.190434
   11          1             0       -1.242623    0.467403    5.809566
   12          1             0       -1.242623   -0.467403    4.190434
 ---------------------------------------------------------------------

 SCF Done:  E(RB+HF-LYP) =  -157.185930781     A.U. after    9 cycles

 Alpha  occ. eigenvalues --  -10.19914 -10.19833 -10.19596 -10.19515  -0.76256
 Alpha  occ. eigenvalues --   -0.75931  -0.58498  -0.58185  -0.47314  -0.46987
 Alpha  occ. eigenvalues --   -0.42319  -0.42005  -0.36367  -0.36048  -0.27683
 Alpha  occ. eigenvalues --   -0.27292
 Alpha virt. eigenvalues --   -0.01259  -0.00589   0.01401   0.02389   0.03319
 Alpha virt. eigenvalues --    0.04274   0.04394   0.06058   0.07592   0.07842
 Alpha virt. eigenvalues --    0.08469   0.09394   0.10235   0.12050   0.13227

 Mulliken atomic charges:
              1
     1  C   -0.368971
     2  C   -0.368971
     3  H    0.184355
     4  H    0.182487
     5  H    0.184355
     6  H    0.182487
     7  C   -0.363693
     8  C   -0.363693
     9  H    0.182131
    10  H    0.183692
    11  H    0.182131
    12  H    0.183692
 Sum of Mulliken charges=   0.00000

 Dipole moment (field-independent basis, Debye):
    X=     0.0000    Y=     0.0161    Z=    -0.0321  Tot=     0.0359
 Quadrupole moment (field-independent basis, Debye-Ang):
   XX=   -24.8875   YY=   -27.6177   ZZ=   -29.8881
   XY=     0.0000   XZ=     0.0000   YZ=     1.6053

 Normal termination of Gaussian 03 at Fri Nov  9 15:52:49 2007.
