 Gaussian 09, Revision A.01,
 Gaussian 09:  EM64L-G09RevA.01  8-May-2009

 -------------------------------------------------------------
 #b3lyp/6-31+g* scf=tight nosymm punch=mo iop(3/33=1) pop=full
 -------------------------------------------------------------

 -------
 9_11_07
 -------
 Symbolic Z-matrix:
 Charge =  0 Multiplicity = 1

                          Input orientation:
 ---------------------------------------------------------------------
 Center     Atomic      Atomic             Coordinates (Angstroms)
 Number     Number       Type             X           Y           Z
 ---------------------------------------------------------------------
      1          1           0        1.242623    0.000000    4.065194
      2          6           0        0.672749    0.000000    0.000000
      3          1           0        1.242623   -0.934806    0.000000
      4          6           0       -0.672749    0.000000    0.000000
      5          1           0       -1.242623    0.000000    5.934806
      6          1           0        1.242623    0.934806    0.000000
      7          6           0        0.672749    0.000000    5.000000
      8          1           0       -1.242623    0.934806    0.000000
      9          1           0       -1.242623   -0.934806    0.000000
     10          6           0       -0.672749    0.000000    5.000000
     11          1           0        1.242623    0.000000    5.934806
     12          1           0       -1.242623    0.000000    4.065194
 ---------------------------------------------------------------------

 SCF Done:  E(RB3LYP) =  -157.186112229     A.U. after    9 cycles

 Alpha  occ. eigenvalues --  -10.20023 -10.19942 -10.19578 -10.19497  -0.76368
 Alpha  occ. eigenvalues --   -0.75917  -0.58603  -0.58168  -0.47416  -0.46965
 Alpha  occ. eigenvalues --   -0.42425  -0.41989  -0.36467  -0.36025  -0.27773
 Alpha  occ. eigenvalues --   -0.27322
 Alpha virt. eigenvalues --   -0.01247  -0.00747   0.01272   0.02311   0.03250
 Alpha virt. eigenvalues --    0.04337   0.04370   0.06002   0.07704   0.07722
 Alpha virt. eigenvalues --    0.08638   0.09230   0.10306   0.11831   0.13320

 Mulliken atomic charges:
              1
     1  H    0.185533
     2  C   -0.370734
     3  H    0.184102
     4  C   -0.370734
     5  H    0.182761
     6  H    0.184102
     7  C   -0.365765
     8  H    0.184102
     9  H    0.184102
    10  C   -0.365765
    11  H    0.182761
    12  H    0.185533
 Sum of Mulliken atomic charges =   0.00000

 Dipole moment (field-independent basis, Debye):
    X=              0.0000    Y=              0.0000    Z=             -0.0527  Tot=              0.0527
 Quadrupole moment (field-independent basis, Debye-Ang):
   XX=            -24.8774   YY=            -28.5447   ZZ=            -28.9892
   XY=              0.0000   XZ=              0.0000   YZ=              0.0000

 Normal termination of Gaussian 09 at Thu Mar 22 11:00:52 2018.
