 Gaussian 03, Revision B.05,
 Gaussian 03:  x86_64-Linux-G03RevB.05  8-Nov-2003

 ----------------------------------------------------
 #b3lyp/6-31+g* scf=tight nosymm punch=mo iop(3/33=1)
 ----------------------------------------------------

 -------
 9_11_07
 -------
 Symbolic Z-matrix:
 Charge =  0 Multiplicity = 1

                          Input orientation:
 ---------------------------------------------------------------------
 Center     Atomic     Atomic              Coordinates (Angstroms)
 Number     Number      Type              X           Y           Z
 ---------------------------------------------------------------------
    1          6             0        0.672749    0.000000    0.000000
    2          6             0       -0.672749    0.000000    0.000000
    3          1             0        1.242623    0.934806    0.000000
    4          1             0        1.242623   -0.934806    0.000000
    5          1             0       -1.242623    0.934806    0.000000
    6          1             0       -1.242623   -0.934806    0.000000
    7          6             0        0.672749    0.000000    5.000000
    8          6             0       -0.672749    0.000000    5.000000
    9          1             0        1.242623    0.878430    5.319722
   10          1             0        1.242623   -0.878430    4.680278
   11          1             0       -1.242623    0.878430    5.319722
   12          1             0       -1.242623   -0.878430    4.680278
 ---------------------------------------------------------------------

 SCF Done:  E(RB+HF-LYP) =  -157.185622281     A.U. after    9 cycles

 Alpha  occ. eigenvalues --  -10.19673 -10.19627 -10.19592 -10.19546  -0.76011
 Alpha  occ. eigenvalues --   -0.75961  -0.58267  -0.58218  -0.47086  -0.47035
 Alpha  occ. eigenvalues --   -0.42085  -0.42036  -0.36146  -0.36096  -0.27554
 Alpha  occ. eigenvalues --   -0.27158
 Alpha virt. eigenvalues --   -0.01262  -0.00275   0.01687   0.02567   0.03575
 Alpha virt. eigenvalues --    0.04087   0.04554   0.05953   0.07559   0.08130
 Alpha virt. eigenvalues --    0.08145   0.09595   0.10009   0.11726   0.13213

 Mulliken atomic charges:
              1
     1  C   -0.364197
     2  C   -0.364197
     3  H    0.182512
     4  H    0.181268
     5  H    0.182512
     6  H    0.181268
     7  C   -0.362696
     8  C   -0.362696
     9  H    0.181420
    10  H    0.181691
    11  H    0.181420
    12  H    0.181691
 Sum of Mulliken charges=   0.00000

 Dipole moment (field-independent basis, Debye):
    X=     0.0000    Y=     0.0100    Z=    -0.0037  Tot=     0.0107
 Quadrupole moment (field-independent basis, Debye-Ang):
   XX=   -24.9135   YY=   -25.2802   ZZ=   -32.2927
   XY=     0.0000   XZ=     0.0000   YZ=     1.1849

 Normal termination of Gaussian 03 at Fri Nov  9 15:51:09 2007.
