 Gaussian 09, Revision A.01,
 Gaussian 09:  EM64L-G09RevA.01  8-May-2009

 -------------------------------------------------------------
 #b3lyp/6-31+g* scf=tight nosymm punch=mo iop(3/33=1) pop=full
 -------------------------------------------------------------

 -------
 9_11_07
 -------
 Symbolic Z-matrix:
 Charge =  0 Multiplicity = 1

                          Input orientation:
 ---------------------------------------------------------------------
 Center     Atomic      Atomic             Coordinates (Angstroms)
 Number     Number       Type             X           Y           Z
 ---------------------------------------------------------------------
      1          6           0        0.672749    0.000000    0.000000
      2          6           0       -0.672749    0.000000    0.000000
      3          1           0        1.242623    0.934806    0.000000
      4          1           0        1.242623   -0.934806    0.000000
      5          1           0       -1.242623    0.934806    0.000000
      6          1           0       -1.242623   -0.934806    0.000000
      7          6           0        0.672749    0.000000    5.000000
      8          6           0       -0.672749    0.000000    5.000000
      9          1           0        1.242623    0.809566    5.467403
     10          1           0        1.242623   -0.809566    4.532597
     11          1           0       -1.242623    0.809566    5.467403
     12          1           0       -1.242623   -0.809566    4.532597
 ---------------------------------------------------------------------

 SCF Done:  E(RB3LYP) =  -157.185674958     A.U. after    9 cycles

 Alpha  occ. eigenvalues --  -10.19721 -10.19640 -10.19621 -10.19540  -0.76059
 Alpha  occ. eigenvalues --   -0.75955  -0.58312  -0.58212  -0.47131  -0.47026
 Alpha  occ. eigenvalues --   -0.42131  -0.42031  -0.36190  -0.36088  -0.27572
 Alpha  occ. eigenvalues --   -0.27192
 Alpha virt. eigenvalues --   -0.01264  -0.00333   0.01632   0.02532   0.03503
 Alpha virt. eigenvalues --    0.04134   0.04519   0.05990   0.07551   0.08078
 Alpha virt. eigenvalues --    0.08195   0.09567   0.10055   0.11905   0.13203

 Mulliken atomic charges:
              1
     1  C   -0.365265
     2  C   -0.365265
     3  H    0.183053
     4  H    0.181359
     5  H    0.183053
     6  H    0.181359
     7  C   -0.362382
     8  C   -0.362382
     9  H    0.181411
    10  H    0.181824
    11  H    0.181411
    12  H    0.181824
 Sum of Mulliken atomic charges =   0.00000

 Dipole moment (field-independent basis, Debye):
    X=              0.0000    Y=              0.0143    Z=             -0.0081  Tot=              0.0164
 Quadrupole moment (field-independent basis, Debye-Ang):
   XX=            -24.9079   YY=            -25.7704   ZZ=            -31.7783
   XY=              0.0000   XZ=              0.0000   YZ=              1.5991

 Normal termination of Gaussian 09 at Thu Apr  5 13:47:47 2018.
