 Gaussian 03, Revision B.05,
 Gaussian 03:  x86_64-Linux-G03RevB.05  8-Nov-2003

 ----------------------------------------------------
 #b3lyp/6-31+g* scf=tight nosymm punch=mo iop(3/33=1)
 ----------------------------------------------------

 -------
 9_11_07
 -------
 Symbolic Z-matrix:
 Charge =  0 Multiplicity = 1

                          Input orientation:
 ---------------------------------------------------------------------
 Center     Atomic     Atomic              Coordinates (Angstroms)
 Number     Number      Type              X           Y           Z
 ---------------------------------------------------------------------
    1          6             0        0.672749    0.000000    0.000000
    2          6             0       -0.672749    0.000000    0.000000
    3          1             0        1.242623    0.934806    0.000000
    4          1             0        1.242623   -0.934806    0.000000
    5          1             0       -1.242623    0.934806    0.000000
    6          1             0       -1.242623   -0.934806    0.000000
    7          6             0        0.672749    0.000000    5.000000
    8          6             0       -0.672749    0.000000    5.000000
    9          1             0        1.242623    0.162327    5.920604
   10          1             0        1.242623   -0.162327    4.079396
   11          1             0       -1.242623    0.162327    5.920604
   12          1             0       -1.242623   -0.162327    4.079396
 ---------------------------------------------------------------------

 SCF Done:  E(RB+HF-LYP) =  -157.186094108     A.U. after    9 cycles

 Alpha  occ. eigenvalues --  -10.20009 -10.19929 -10.19581 -10.19501  -0.76354
 Alpha  occ. eigenvalues --   -0.75919  -0.58590  -0.58170  -0.47404  -0.46968
 Alpha  occ. eigenvalues --   -0.42412  -0.41992  -0.36454  -0.36029  -0.27761
 Alpha  occ. eigenvalues --   -0.27320
 Alpha virt. eigenvalues --   -0.01249  -0.00728   0.01287   0.02321   0.03257
 Alpha virt. eigenvalues --    0.04344   0.04356   0.06013   0.07680   0.07737
 Alpha virt. eigenvalues --    0.08616   0.09254   0.10299   0.11863   0.13300

 Mulliken atomic charges:
              1
     1  C   -0.370519
     2  C   -0.370519
     3  H    0.184405
     4  H    0.183625
     5  H    0.184405
     6  H    0.183625
     7  C   -0.365473
     8  C   -0.365473
     9  H    0.182685
    10  H    0.185278
    11  H    0.182685
    12  H    0.185278
 Sum of Mulliken charges=   0.00000

 Dipole moment (field-independent basis, Debye):
    X=     0.0000    Y=     0.0063    Z=    -0.0497  Tot=     0.0501
 Quadrupole moment (field-independent basis, Debye-Ang):
   XX=   -24.8787   YY=   -28.4333   ZZ=   -29.0951
   XY=     0.0000   XZ=     0.0000   YZ=     0.6337

 Normal termination of Gaussian 03 at Fri Nov  9 15:53:39 2007.
