 Gaussian 03, Revision B.05,
 Gaussian 03:  x86_64-Linux-G03RevB.05  8-Nov-2003

 ----------------------------------------------------
 #b3lyp/6-31+g* scf=tight nosymm punch=mo iop(3/33=1)
 ----------------------------------------------------

 -------
 9_11_07
 -------
 Symbolic Z-matrix:
 Charge =  0 Multiplicity = 1

                          Input orientation:
 ---------------------------------------------------------------------
 Center     Atomic     Atomic              Coordinates (Angstroms)
 Number     Number      Type              X           Y           Z
 ---------------------------------------------------------------------
    1          6             0        0.672749    0.000000    0.000000
    2          6             0       -0.672749    0.000000    0.000000
    3          1             0        1.242623    0.934806    0.000000
    4          1             0        1.242623   -0.934806    0.000000
    5          1             0       -1.242623    0.934806    0.000000
    6          1             0       -1.242623   -0.934806    0.000000
    7          6             0        0.672749    0.000000    5.000000
    8          6             0       -0.672749    0.000000    5.000000
    9          1             0        1.242623    0.319722    5.878430
   10          1             0        1.242623   -0.319722    4.121570
   11          1             0       -1.242623    0.319722    5.878430
   12          1             0       -1.242623   -0.319722    4.121570
 ---------------------------------------------------------------------

 SCF Done:  E(RB+HF-LYP) =  -157.186022489     A.U. after    9 cycles

 Alpha  occ. eigenvalues --  -10.19970 -10.19890 -10.19587 -10.19506  -0.76314
 Alpha  occ. eigenvalues --   -0.75924  -0.58553  -0.58176  -0.47367  -0.46976
 Alpha  occ. eigenvalues --   -0.42374  -0.41997  -0.36419  -0.36037  -0.27728
 Alpha  occ. eigenvalues --   -0.27310
 Alpha virt. eigenvalues --   -0.01254  -0.00670   0.01333   0.02348   0.03282
 Alpha virt. eigenvalues --    0.04320   0.04364   0.06039   0.07638   0.07779
 Alpha virt. eigenvalues --    0.08555   0.09317   0.10276   0.11952   0.13263

 Mulliken atomic charges:
              1
     1  C   -0.369906
     2  C   -0.369906
     3  H    0.184489
     4  H    0.183053
     5  H    0.184489
     6  H    0.183053
     7  C   -0.364654
     8  C   -0.364654
     9  H    0.182449
    10  H    0.184569
    11  H    0.182449
    12  H    0.184569
 Sum of Mulliken charges=   0.00000

 Dipole moment (field-independent basis, Debye):
    X=     0.0000    Y=     0.0120    Z=    -0.0419  Tot=     0.0436
 Quadrupole moment (field-independent basis, Debye-Ang):
   XX=   -24.8823   YY=   -28.1105   ZZ=   -29.4037
   XY=     0.0000   XZ=     0.0000   YZ=     1.1916

 Normal termination of Gaussian 03 at Fri Nov  9 15:53:13 2007.
