 Gaussian 09, Revision A.01,
 Gaussian 09:  EM64L-G09RevA.01  8-May-2009

 ----------------------------------------------------------------------
 # b3lyp/3-21g nosymm guess=(local,save) pop=(full) geom=connectivity p
 unch=mo iop(3/33=1)
 ----------------------------------------------------------------------

 -------------------
 Title Card Required
 -------------------
 Symbolic Z-matrix:
 Charge =  0 Multiplicity = 2

                          Input orientation:
 ---------------------------------------------------------------------
 Center     Atomic      Atomic             Coordinates (Angstroms)
 Number     Number       Type             X           Y           Z
 ---------------------------------------------------------------------
      1          6           0        0.351087   -1.231510    0.897221
      2         16           0        0.076671   -2.641048    1.910217
      3          6           0        1.688866   -0.980206    0.807960
      4          1           0        2.129873   -0.170239    0.243134
      5          6           0        2.505629   -1.923765    1.548739
      6          6           0        1.774360   -2.879593    2.191252
      7          1           0        4.411330   -2.373833    2.439157
      8          6           0        3.996822   -1.819967    1.571913
      9          1           0        4.303170   -3.414210    0.124052
     10          1           0        6.551175   -2.797486    1.141030
     11          1           0        2.127682   -3.692097    2.799686
     12          6           0        4.606725   -2.358627    0.267556
     13          6           0        6.136174   -2.245070    0.275906
     14          1           0        8.689434   -3.225564   -0.156954
     15          1           0        4.298796   -0.762840    1.725679
     16          1           0        6.444780   -3.840761   -1.172943
     17          6           0        6.742759   -2.784698   -1.026227
     18          1           0        4.188178   -1.806934   -0.596844
     19          1           0        6.435716   -1.189117    0.420912
     20          6           0        8.273872   -2.672647   -1.022065
     21          1           0        8.636463   -4.265163   -2.470744
     22          1           0        8.573662   -1.616182   -0.877829
     23          6           0        8.882626   -3.208474   -2.316003
     24          1           0        6.329128   -2.233930   -1.892875
     25          1           0        9.975053   -3.124636   -2.304165
     26          1           0        8.520788   -2.656938   -3.191203
 ---------------------------------------------------------------------

 SCF Done:  E(UB3LYP) =  -784.089921754     A.U. after   21 cycles

 Alpha  occ. eigenvalues --  -88.27006 -10.19307 -10.15665 -10.14627 -10.13843
 Alpha  occ. eigenvalues --  -10.13126 -10.12108 -10.11763 -10.11616 -10.11506
 Alpha  occ. eigenvalues --  -10.10596  -7.91514  -5.88506  -5.87983  -5.87432
 Alpha  occ. eigenvalues --   -0.90449  -0.81611  -0.78862  -0.74748  -0.74045
 Alpha  occ. eigenvalues --   -0.69690  -0.64040  -0.58817  -0.57870  -0.56136
 Alpha  occ. eigenvalues --   -0.55122  -0.48747  -0.48092  -0.44975  -0.43530
 Alpha  occ. eigenvalues --   -0.42647  -0.41933  -0.40039  -0.39498  -0.38561
 Alpha  occ. eigenvalues --   -0.37428  -0.35707  -0.35251  -0.34138  -0.33344
 Alpha  occ. eigenvalues --   -0.32803  -0.32008  -0.31160  -0.29486  -0.25332
 Alpha  occ. eigenvalues --   -0.24139
 Alpha virt. eigenvalues --   -0.01296   0.04829   0.06558   0.10365   0.11244
 Alpha virt. eigenvalues --    0.12612   0.13025   0.14004   0.14694   0.16013
 Alpha virt. eigenvalues --    0.16504   0.18260   0.19794   0.19843   0.19925

  Beta  occ. eigenvalues --  -88.26973 -10.17664 -10.15663 -10.14490 -10.13896
  Beta  occ. eigenvalues --  -10.13119 -10.12106 -10.11762 -10.11616 -10.11506
  Beta  occ. eigenvalues --  -10.10596  -7.91473  -5.88431  -5.87953  -5.87418
  Beta  occ. eigenvalues --   -0.89719  -0.81522  -0.78704  -0.74605  -0.73223
  Beta  occ. eigenvalues --   -0.69397  -0.63916  -0.58780  -0.57858  -0.55035
  Beta  occ. eigenvalues --   -0.54641  -0.48196  -0.47611  -0.44882  -0.43505
  Beta  occ. eigenvalues --   -0.42306  -0.41693  -0.39927  -0.39233  -0.38176
  Beta  occ. eigenvalues --   -0.37075  -0.35511  -0.35093  -0.33890  -0.33339
  Beta  occ. eigenvalues --   -0.32718  -0.32008  -0.31045  -0.25236  -0.23361
  Beta virt. eigenvalues --   -0.12649  -0.00010   0.05561   0.07010   0.11016
  Beta virt. eigenvalues --    0.11516   0.12665   0.13239   0.14060   0.14728
  Beta virt. eigenvalues --    0.16049   0.16647   0.18306   0.19831   0.19881

 Mulliken atomic charges:
              1
     1  C   -0.310298
     2  S    0.599316
     3  C   -0.218961
     4  H    0.207988
     5  C    0.116106
     6  C   -0.630373
     7  H    0.196318
     8  C   -0.439214
     9  H    0.193639
    10  H    0.181623
    11  H    0.231437
    12  C   -0.343571
    13  C   -0.362818
    14  H    0.182764
    15  H    0.200532
    16  H    0.182466
    17  C   -0.353352
    18  H    0.189560
    19  H    0.181640
    20  C   -0.375397
    21  H    0.185688
    22  H    0.182776
    23  C   -0.550517
    24  H    0.181970
    25  H    0.185036
    26  H    0.185641
 Sum of Mulliken atomic charges =   0.00000

 Dipole moment (field-independent basis, Debye):
    X=              2.0387    Y=             -0.1285    Z=              0.0055  Tot=              2.0428
 Quadrupole moment (field-independent basis, Debye-Ang):
   XX=            -67.9048   YY=            -74.1119   ZZ=            -76.8457
   XY=             -4.5161   XZ=              3.0283   YZ=             -3.4621

 Normal termination of Gaussian 09 at Thu Mar 29 09:11:45 2018.
